HEADER
"PSFversion" "1.00"
"Log Generator" "drlLog rev. 1.0"
"Log Time Stamp" "Fri Jun  5 22:05:14 2026"
"psfversion" "1.4.0"
"simulator" "spectre"
"version" "24.1.0.167.isr2"
"date" "10:05:14 PM, Fri Jun 5, 2026"
"design" "// Parasitic metrics — charge injection and clock feedthrough (Spectre DC export)."
"signalNameType" "spectre"
"simMode" "Spectre"
"measdgt" 0
"ingold" 2
"sst2usecolon" 0
TYPE
"analysisInst" STRUCT(
"analysisType" STRING *
"dataFile" STRING *
"format" STRING *
"parent" STRING *
"sweepVariable" ARRAY ( * ) STRING *
"description" STRING *
)
VALUE
"dcOp-dc" "analysisInst" (
"dc"
"dcOp.dc"
"PSF"
""
()
"DC Analysis `dcOp'"
) PROP(
"data_type" "scalar"
)

END
