HEADER
"PSFversion" "1.00"
"Log Generator" "drlLog rev. 1.0"
"Log Time Stamp" "Fri Jun  5 18:10:58 2026"
"psfversion" "1.4.0"
"simulator" "spectre"
"version" "24.1.0.167.isr2"
"date" "6:10:58 PM, Fri Jun 5, 2026"
"design" "(no title)"
"signalNameType" "spectre"
"simMode" "Spectre"
"measdgt" 0
"ingold" 2
"sst2usecolon" 0
TYPE
"analysisInst" STRUCT(
"analysisType" STRING *
"dataFile" STRING *
"format" STRING *
"parent" STRING *
"sweepVariable" ARRAY ( * ) STRING *
"description" STRING *
)
VALUE
"dc-dc" "analysisInst" (
"dc"
"dc.dc"
"PSF"
""
()
"DC Analysis `dc'"
) PROP(
"data_type" "scalar"
)

END
