HEADER
"PSFversion" "1.00"
"Log Generator" "drlLog rev. 1.0"
"Log Time Stamp" "Sat Jun  6 01:05:31 2026"
"psfversion" "1.4.0"
"simulator" "spectre"
"version" "24.1.0.167.isr2"
"date" "1:05:31 AM, Sat Jun 6, 2026"
"design" "// Channel noise at VCM — Spectre + Verilog-A configurable_switch"
"signalNameType" "spectre"
"simMode" "Spectre"
"measdgt" 0
"ingold" 2
"sst2usecolon" 0
TYPE
"analysisInst" STRUCT(
"analysisType" STRING *
"dataFile" STRING *
"format" STRING *
"parent" STRING *
"sweepVariable" ARRAY ( * ) STRING *
"description" STRING *
)
VALUE
"noise-noise" "analysisInst" (
"noise"
"noise.noise"
"PSF"
""
("freq")
"Noise Analysis `noise': freq = (1 Hz -> 1 MHz)"
) PROP(
"data_type" "swept_struct"
)

END
